Generated using dynaphopy

48 atoms

2 atom types


        0.0000000000        12.6639995576 xlo xhi
        0.0000000000        10.9673453304 ylo yhi
        0.0000000000        10.0000000000 zlo zhi
       -6.3319997788         0.0000000000         0.0000000000 xy xz yz

Masses

1        95.9600000000 
2        32.0650000000 

Atoms

1 1         0.0000053658         1.8278878575         5.0057333300
2 1         3.1660052552         1.8278878575         5.0057333300
3 1         6.3320051446         1.8278878575         5.0057333300
4 1         9.4980050340         1.8278878575         5.0057333300
5 1        -1.5829945789         4.5697241901         5.0057333300
6 1         1.5830053105         4.5697241901         5.0057333300
7 1         4.7490051999         4.5697241901         5.0057333300
8 1         7.9150050893         4.5697241901         5.0057333300
9 1        -3.1659945236         7.3115605227         5.0057333300
10 1         0.0000053658         7.3115605227         5.0057333300
11 1         3.1660052552         7.3115605227         5.0057333300
12 1         6.3320051446         7.3115605227         5.0057333300
13 1        -4.7489944683        10.0533968553         5.0057333300
14 1        -1.5829945789        10.0533968553         5.0057333300
15 1         1.5830053105        10.0533968553         5.0057333300
16 1         4.7490051999        10.0533968553         5.0057333300
17 2         1.5830053105         0.9139424133         3.3835303610
18 2         4.7490051999         0.9139424133         3.3835303610
19 2         7.9150050893         0.9139424133         3.3835303610
20 2        11.0810049787         0.9139424133         3.3835303610
21 2         0.0000053658         3.6557787459         3.3835303610
22 2         3.1660052552         3.6557787459         3.3835303610
23 2         6.3320051446         3.6557787459         3.3835303610
24 2         9.4980050340         3.6557787459         3.3835303610
25 2        -1.5829945789         6.3976150785         3.3835303610
26 2         1.5830053105         6.3976150785         3.3835303610
27 2         4.7490051999         6.3976150785         3.3835303610
28 2         7.9150050893         6.3976150785         3.3835303610
29 2        -3.1659945236         9.1394514111         3.3835303610
30 2         0.0000053658         9.1394514111         3.3835303610
31 2         3.1660052552         9.1394514111         3.3835303610
32 2         6.3320051446         9.1394514111         3.3835303610
33 2         1.5830053105         0.9139424133         6.6279362990
34 2         4.7490051999         0.9139424133         6.6279362990
35 2         7.9150050893         0.9139424133         6.6279362990
36 2        11.0810049787         0.9139424133         6.6279362990
37 2         0.0000053658         3.6557787459         6.6279362990
38 2         3.1660052552         3.6557787459         6.6279362990
39 2         6.3320051446         3.6557787459         6.6279362990
40 2         9.4980050340         3.6557787459         6.6279362990
41 2        -1.5829945789         6.3976150785         6.6279362990
42 2         1.5830053105         6.3976150785         6.6279362990
43 2         4.7490051999         6.3976150785         6.6279362990
44 2         7.9150050893         6.3976150785         6.6279362990
45 2        -3.1659945236         9.1394514111         6.6279362990
46 2         0.0000053658         9.1394514111         6.6279362990
47 2         3.1660052552         9.1394514111         6.6279362990
48 2         6.3320051446         9.1394514111         6.6279362990
