  48   48
1 1
    26.472329324341118     0.000000000001105    -0.000000000000000
     0.000000000001105    26.472329324355389     0.000000000000012
    -0.000000000000000     0.000000000000012    37.120609840009344
1 2
    -0.460679933308619    -0.039451391106976     0.000000000000003
     0.039451391104693    -0.282866883081825    -0.000000000000057
    -0.000000000000022    -0.000000000000030    -0.451202222641444
1 3
    -0.868214570926191     0.000000000000292     0.000000000000004
    -0.000000000001107     2.656886415684169     0.000000000000011
     0.000000000000032    -0.000000000000026     0.129690314168788
1 4
    -0.460679933312134     0.039451391106061     0.000000000000003
    -0.039451391107824    -0.282866883079093    -0.000000000000050
    -0.000000000000018     0.000000000000047    -0.451202222641101
1 5
    -0.327320145637462     0.037543918202339    -0.000000000000005
     0.116446700415839    -0.416226670755955     0.000000000000026
     0.000000000000016    -0.000000000000056    -0.451202222642039
1 6
    -0.327320145639993    -0.037543918204621     0.000000000000001
    -0.116446700413264    -0.416226670755745    -0.000000000000001
    -0.000000000000041     0.000000000000003    -0.451202222643054
1 7
    -0.453544030544170     0.732425524682885    -0.000000000000007
     0.732425524681120    -1.299276178214918     0.000000000000028
     0.000000000000005     0.000000000000046     0.031502257877298
1 8
    -0.453544030544507    -0.732425524680790     0.000000000000002
    -0.732425524681024    -1.299276178215417     0.000000000000004
    -0.000000000000002    -0.000000000000023     0.031502257877072
1 9
     1.775611169031310     1.526413502657144     0.000000000000002
     1.526413502655923     0.013060675729056     0.000000000000017
    -0.000000000000030     0.000000000000021     0.129690314168784
1 10
    -1.722142252050130     0.000000000001698     0.000000000000002
    -0.000000000001795    -0.030677956707727    -0.000000000000052
     0.000000000000031    -0.000000000000008     0.031502257877111
1 11
     1.775611169031967    -1.526413502656336     0.000000000000004
    -1.526413502654158     0.013060675730903     0.000000000000029
    -0.000000000000004    -0.000000000000039     0.129690314169215
1 12
    -1.722142252054131    -0.000000000002003    -0.000000000000000
    -0.000000000000054    -0.030677956706955    -0.000000000000058
    -0.000000000000009     0.000000000000001     0.031502257877589
1 13
    -0.327320145635899     0.116446700414317    -0.000000000000009
     0.037543918206834    -0.416226670755492     0.000000000000022
    -0.000000000000003    -0.000000000000013    -0.451202222642318
1 14
    -0.453544030545534    -0.732425524679728     0.000000000000001
    -0.732425524684916    -1.299276178215320     0.000000000000010
     0.000000000000004     0.000000000000021     0.031502257877115
1 15
    -0.453544030544885     0.732425524678638    -0.000000000000011
     0.732425524686457    -1.299276178215594     0.000000000000033
    -0.000000000000042     0.000000000000009     0.031502257877179
1 16
    -0.327320145637610    -0.116446700413701     0.000000000000001
    -0.037543918207306    -0.416226670757457     0.000000000000004
     0.000000000000026    -0.000000000000009    -0.451202222642527
1 17
    -4.786404567448715     1.847825486001944     4.211650129623315
     1.847825486002824    -2.652719483931551    -2.431597336069575
     3.282937171121773    -1.895404659479982    -5.918863219548678
1 18
     0.190418152624806    -0.447995403101910    -0.180104750266862
     0.255285296227160    -0.036528054683194     0.335066834585803
     0.093748975556682     0.024193820644880     0.044660350771670
1 19
     0.190418152625097     0.447995403101914     0.180104750266591
    -0.255285296227504    -0.036528054684035     0.335066834585921
    -0.093748975556811     0.024193820644877     0.044660350771680
1 20
    -4.786404567449764    -1.847825486002388    -4.211650129624051
    -1.847825486002757    -2.652719483931234    -2.431597336068804
    -3.282937171121713    -1.895404659480030    -5.918863219548543
1 21
    -1.585876942172342     0.000000000000635    -0.000000000000944
    -0.000000000000210    -5.853247109207045     4.863194672138694
     0.000000000000096     3.790809318960024    -5.918863219548487
1 22
     0.082162506933996     0.019472428712939    -0.008327051861026
     0.019472428714529     0.059677683013275    -0.004807625633894
     0.079280911755708     0.045772855743910     0.021354355212511
1 23
    -0.382087623915725     0.000000000000088     0.000000000000149
    -0.000000000000345     0.266156640404787    -0.613514362001530
    -0.000000000000033     0.013447525389426    -0.023472455157737
1 24
     0.082162506933214    -0.019472428713146     0.008327051861306
    -0.019472428713855     0.059677683013294    -0.004807625633701
    -0.079280911755813     0.045772855743945     0.021354355212592
1 25
    -0.063237426915732    -0.401733413357598    -0.200124015583528
     0.301547285973020     0.217127524856507    -0.323508706365587
    -0.067826951071391     0.069092084088332     0.044660350771539
1 26
    -0.063237426916019     0.401733413357613     0.200124015584208
    -0.301547285973408     0.217127524856489    -0.323508706365358
     0.067826951071394     0.069092084088210     0.044660350771548
1 27
     0.104095574324126    -0.280698000380039    -0.531319023080517
    -0.280698000379556    -0.220026557835171     0.306757181000743
     0.011645898605163    -0.006723762694601    -0.023472455158108
1 28
     0.104095574324327     0.280698000379970     0.531319023079665
     0.280698000379370    -0.220026557834939     0.306757181001247
    -0.011645898605181    -0.006723762694605    -0.023472455158019
1 29
     0.103654421202637     0.205192232536646    -0.380228765851212
    -0.498088466793947     0.050235676737893    -0.011558128221224
     0.025922024485217    -0.093285904733440     0.044660350771627
1 30
    -0.175292803207469     0.000000000000298    -0.000000000000104
     0.000000000000592    -0.175292803206127     0.000000000000888
    -0.000000000000021     0.000000000000000    -0.001092738819286
1 31
     0.103654421202608    -0.205192232536778     0.380228765850774
     0.498088466794032     0.050235676737302    -0.011558128221766
    -0.025922024485184    -0.093285904733495     0.044660350771689
1 32
     0.048435271055672    -0.000000000000516     0.000000000000310
     0.000000000000388     0.093404918892171     0.009615251266921
    -0.000000000000017    -0.091545711487518     0.021354355212785
1 33
    -4.786404567448716     1.847825486001941    -4.211650129623314
     1.847825486002831    -2.652719483931543     2.431597336069568
    -3.282937171121795     1.895404659479984    -5.918863219548663
1 34
     0.190418152624806    -0.447995403101911     0.180104750266866
     0.255285296227146    -0.036528054683192    -0.335066834585810
    -0.093748975556682    -0.024193820644872     0.044660350771684
1 35
     0.190418152625095     0.447995403101913    -0.180104750266592
    -0.255285296227484    -0.036528054684021    -0.335066834585936
     0.093748975556823    -0.024193820644883     0.044660350771690
1 36
    -4.786404567449759    -1.847825486002392     4.211650129624058
    -1.847825486002778    -2.652719483931223     2.431597336068787
     3.282937171121698     1.895404659480038    -5.918863219548575
1 37
    -1.585876942172342     0.000000000000636     0.000000000000943
    -0.000000000000192    -5.853247109207047    -4.863194672138667
    -0.000000000000083    -3.790809318960022    -5.918863219548467
1 38
     0.082162506933996     0.019472428712941     0.008327051861025
     0.019472428714537     0.059677683013265     0.004807625633887
    -0.079280911755713    -0.045772855743907     0.021354355212491
1 39
    -0.382087623915726     0.000000000000088    -0.000000000000152
    -0.000000000000342     0.266156640404785     0.613514362001551
     0.000000000000027    -0.013447525389438    -0.023472455157742
1 40
     0.082162506933215    -0.019472428713145    -0.008327051861305
    -0.019472428713855     0.059677683013279     0.004807625633695
     0.079280911755804    -0.045772855743935     0.021354355212607
1 41
    -0.063237426915731    -0.401733413357602     0.200124015583527
     0.301547285973040     0.217127524856517     0.323508706365584
     0.067826951071389    -0.069092084088335     0.044660350771513
1 42
    -0.063237426916018     0.401733413357613    -0.200124015584202
    -0.301547285973421     0.217127524856489     0.323508706365353
    -0.067826951071381    -0.069092084088202     0.044660350771574
1 43
     0.104095574324128    -0.280698000380043     0.531319023080518
    -0.280698000379545    -0.220026557835158    -0.306757181000745
    -0.011645898605174     0.006723762694618    -0.023472455158109
1 44
     0.104095574324328     0.280698000379972    -0.531319023079663
     0.280698000379356    -0.220026557834927    -0.306757181001253
     0.011645898605162     0.006723762694596    -0.023472455158015
1 45
     0.103654421202637     0.205192232536649     0.380228765851211
    -0.498088466793954     0.050235676737894     0.011558128221239
    -0.025922024485209     0.093285904733449     0.044660350771623
1 46
    -0.175292803207468     0.000000000000300     0.000000000000103
     0.000000000000600    -0.175292803206148    -0.000000000000889
     0.000000000000009    -0.000000000000015    -0.001092738819295
1 47
     0.103654421202606    -0.205192232536778    -0.380228765850774
     0.498088466794029     0.050235676737290     0.011558128221785
     0.025922024485180     0.093285904733498     0.044660350771679
1 48
     0.048435271055675    -0.000000000000514    -0.000000000000308
     0.000000000000390     0.093404918892155    -0.009615251266923
     0.000000000000033     0.091545711487516     0.021354355212790
2 1
    -0.460679933308617     0.039451391104693    -0.000000000000022
    -0.039451391106976    -0.282866883081826    -0.000000000000030
     0.000000000000003    -0.000000000000057    -0.451202222641447
2 2
    26.472329324338769     0.000000000001841     0.000000000000007
     0.000000000001841    26.472329324354735     0.000000000000016
     0.000000000000007     0.000000000000016    37.120609840009699
2 3
    -0.460679933308290    -0.039451391106239    -0.000000000000016
     0.039451391107272    -0.282866883083576    -0.000000000000029
     0.000000000000001     0.000000000000048    -0.451202222641107
2 4
    -0.868214570925198     0.000000000000430     0.000000000000031
    -0.000000000000324     2.656886415685197     0.000000000000020
    -0.000000000000029    -0.000000000000012     0.129690314169027
2 5
    -0.453544030545521    -0.732425524682413     0.000000000000015
    -0.732425524680727    -1.299276178214862     0.000000000000020
    -0.000000000000001     0.000000000000051     0.031502257877010
2 6
    -0.327320145635933     0.037543918203811    -0.000000000000027
     0.116446700412793    -0.416226670754743    -0.000000000000003
     0.000000000000027     0.000000000000051    -0.451202222643054
2 7
    -0.327320145638117    -0.037543918204962     0.000000000000004
    -0.116446700415649    -0.416226670754096     0.000000000000023
    -0.000000000000014    -0.000000000000036    -0.451202222642614
2 8
    -0.453544030547211     0.732425524681790    -0.000000000000016
     0.732425524681033    -1.299276178213741    -0.000000000000005
     0.000000000000010    -0.000000000000036     0.031502257877038
2 9
    -1.722142252052065    -0.000000000000342    -0.000000000000003
    -0.000000000000257    -0.030677956706763    -0.000000000000030
     0.000000000000019     0.000000000000007     0.031502257877370
2 10
     1.775611169032829     1.526413502654608     0.000000000000024
     1.526413502656137     0.013060675727456    -0.000000000000003
    -0.000000000000013    -0.000000000000049     0.129690314169573
2 11
    -1.722142252056281     0.000000000001065    -0.000000000000018
     0.000000000000493    -0.030677956706356    -0.000000000000028
    -0.000000000000028    -0.000000000000004     0.031502257877513
2 12
     1.775611169036672    -1.526413502654344     0.000000000000021
    -1.526413502654348     0.013060675727745     0.000000000000014
     0.000000000000018     0.000000000000068     0.129690314169282
2 13
    -0.327320145638018    -0.116446700414189    -0.000000000000000
    -0.037543918204572    -0.416226670755500     0.000000000000025
    -0.000000000000031    -0.000000000000023    -0.451202222642862
2 14
    -0.327320145639002     0.116446700412995    -0.000000000000022
     0.037543918204525    -0.416226670753924    -0.000000000000005
    -0.000000000000038    -0.000000000000012    -0.451202222642666
2 15
    -0.453544030543893    -0.732425524679477    -0.000000000000006
    -0.732425524682965    -1.299276178213057     0.000000000000014
     0.000000000000050     0.000000000000003     0.031502257876915
2 16
    -0.453544030546286     0.732425524679985    -0.000000000000008
     0.732425524684090    -1.299276178214967    -0.000000000000003
     0.000000000000022     0.000000000000014     0.031502257877353
2 17
    -4.786404567449447    -1.847825486002417    -4.211650129623432
    -1.847825486002692    -2.652719483931542    -2.431597336069168
    -3.282937171121791    -1.895404659480003    -5.918863219548658
2 18
    -4.786404567449705     1.847825486003641     4.211650129624679
     1.847825486002590    -2.652719483931146    -2.431597336069755
     3.282937171121738    -1.895404659480039    -5.918863219548731
2 19
     0.190418152626125    -0.447995403102218    -0.180104750266831
     0.255285296227189    -0.036528054683300     0.335066834585254
     0.093748975556810     0.024193820644882     0.044660350771717
2 20
     0.190418152625518     0.447995403102488     0.180104750266761
    -0.255285296227286    -0.036528054683037     0.335066834585828
    -0.093748975556702     0.024193820644852     0.044660350771648
2 21
     0.082162506933403    -0.019472428713098     0.008327051861534
    -0.019472428714244     0.059677683013176    -0.004807625633838
    -0.079280911755741     0.045772855743913     0.021354355212550
2 22
    -1.585876942172251    -0.000000000000716     0.000000000000162
     0.000000000000127    -5.853247109206958     4.863194672138400
    -0.000000000000031     3.790809318960012    -5.918863219548459
2 23
     0.082162506932799     0.019472428712581    -0.008327051861403
     0.019472428714092     0.059677683013261    -0.004807625633223
     0.079280911755784     0.045772855743997     0.021354355212641
2 24
    -0.382087623916174    -0.000000000000093     0.000000000000214
     0.000000000000633     0.266156640404778    -0.613514362001302
    -0.000000000000002     0.013447525389551    -0.023472455157754
2 25
     0.104095574324255     0.280698000379823     0.531319023080216
     0.280698000379100    -0.220026557835128     0.306757181000802
    -0.011645898605256    -0.006723762694684    -0.023472455158128
2 26
    -0.063237426915549    -0.401733413357479    -0.200124015584605
     0.301547285973658     0.217127524856038    -0.323508706365868
    -0.067826951071376     0.069092084088232     0.044660350771546
2 27
    -0.063237426915275     0.401733413357841     0.200124015584933
    -0.301547285973311     0.217127524855859    -0.323508706365602
     0.067826951071389     0.069092084088191     0.044660350771545
2 28
     0.104095574324808    -0.280698000379549    -0.531319023080227
    -0.280698000379625    -0.220026557835285     0.306757181000621
     0.011645898605248    -0.006723762694660    -0.023472455158081
2 29
     0.048435271055332    -0.000000000000075    -0.000000000000048
    -0.000000000000377     0.093404918891858     0.009615251266609
    -0.000000000000048    -0.091545711487513     0.021354355212766
2 30
     0.103654421203107     0.205192232536581    -0.380228765850598
    -0.498088466793417     0.050235676737263    -0.011558128219870
     0.025922024485156    -0.093285904733481     0.044660350771734
2 31
    -0.175292803208146    -0.000000000000296    -0.000000000000350
    -0.000000000000525    -0.175292803206500     0.000000000000682
    -0.000000000000024     0.000000000000059    -0.001092738819138
2 32
     0.103654421203102    -0.205192232536399     0.380228765850797
     0.498088466793448     0.050235676737551    -0.011558128220540
    -0.025922024485070    -0.093285904733376     0.044660350771615
2 33
    -4.786404567449446    -1.847825486002419     4.211650129623443
    -1.847825486002706    -2.652719483931545     2.431597336069171
     3.282937171121818     1.895404659479997    -5.918863219548666
2 34
    -4.786404567449698     1.847825486003637    -4.211650129624682
     1.847825486002605    -2.652719483931150     2.431597336069752
    -3.282937171121711     1.895404659480050    -5.918863219548738
2 35
     0.190418152626124    -0.447995403102217     0.180104750266848
     0.255285296227187    -0.036528054683290    -0.335066834585258
    -0.093748975556844    -0.024193820644882     0.044660350771727
2 36
     0.190418152625527     0.447995403102485    -0.180104750266755
    -0.255285296227268    -0.036528054683039    -0.335066834585829
     0.093748975556676    -0.024193820644859     0.044660350771640
2 37
     0.082162506933399    -0.019472428713098    -0.008327051861540
    -0.019472428714238     0.059677683013163     0.004807625633831
     0.079280911755742    -0.045772855743908     0.021354355212524
2 38
    -1.585876942172249    -0.000000000000702    -0.000000000000147
     0.000000000000125    -5.853247109206954    -4.863194672138380
     0.000000000000009    -3.790809318960021    -5.918863219548440
2 39
     0.082162506932801     0.019472428712585     0.008327051861391
     0.019472428714093     0.059677683013253     0.004807625633210
    -0.079280911755783    -0.045772855743991     0.021354355212663
2 40
    -0.382087623916172    -0.000000000000085    -0.000000000000211
     0.000000000000627     0.266156640404789     0.613514362001316
     0.000000000000005    -0.013447525389558    -0.023472455157748
2 41
     0.104095574324239     0.280698000379829    -0.531319023080212
     0.280698000379094    -0.220026557835125    -0.306757181000800
     0.011645898605257     0.006723762694696    -0.023472455158111
2 42
    -0.063237426915537    -0.401733413357482     0.200124015584614
     0.301547285973671     0.217127524856034     0.323508706365866
     0.067826951071373    -0.069092084088233     0.044660350771568
2 43
    -0.063237426915284     0.401733413357835    -0.200124015584922
    -0.301547285973323     0.217127524855864     0.323508706365601
    -0.067826951071382    -0.069092084088198     0.044660350771518
2 44
     0.104095574324815    -0.280698000379547     0.531319023080228
    -0.280698000379618    -0.220026557835279    -0.306757181000628
    -0.011645898605242     0.006723762694647    -0.023472455158089
2 45
     0.048435271055339    -0.000000000000069     0.000000000000040
    -0.000000000000374     0.093404918891847    -0.009615251266613
     0.000000000000029     0.091545711487507     0.021354355212771
2 46
     0.103654421203107     0.205192232536588     0.380228765850604
    -0.498088466793424     0.050235676737274     0.011558128219880
    -0.025922024485134     0.093285904733481     0.044660350771700
2 47
    -0.175292803208154    -0.000000000000292     0.000000000000336
    -0.000000000000534    -0.175292803206510    -0.000000000000682
     0.000000000000037    -0.000000000000056    -0.001092738819139
2 48
     0.103654421203099    -0.205192232536387    -0.380228765850791
     0.498088466793444     0.050235676737552     0.011558128220548
     0.025922024485062     0.093285904733393     0.044660350771627
3 1
    -0.868214570926191    -0.000000000001107     0.000000000000032
     0.000000000000292     2.656886415684169    -0.000000000000026
     0.000000000000004     0.000000000000011     0.129690314168788
3 2
    -0.460679933308290     0.039451391107272     0.000000000000001
    -0.039451391106238    -0.282866883083576     0.000000000000048
    -0.000000000000016    -0.000000000000029    -0.451202222641106
3 3
    26.472329324349150    -0.000000000007702     0.000000000000027
    -0.000000000007702    26.472329324333241    -0.000000000000008
     0.000000000000027    -0.000000000000008    37.120609840009358
3 4
    -0.460679933308838    -0.039451391106570    -0.000000000000005
     0.039451391108761    -0.282866883083811     0.000000000000074
    -0.000000000000018     0.000000000000030    -0.451202222641365
3 5
    -0.453544030545812     0.732425524681761    -0.000000000000025
     0.732425524675793    -1.299276178213972    -0.000000000000038
     0.000000000000021    -0.000000000000032     0.031502257877126
3 6
    -0.453544030545362    -0.732425524683140    -0.000000000000000
    -0.732425524679881    -1.299276178214825    -0.000000000000013
    -0.000000000000034     0.000000000000027     0.031502257877182
3 7
    -0.327320145637965     0.037543918204695    -0.000000000000027
     0.116446700411827    -0.416226670750906    -0.000000000000028
     0.000000000000011     0.000000000000026    -0.451202222642226
3 8
    -0.327320145636449    -0.037543918201574     0.000000000000003
    -0.116446700408833    -0.416226670748306    -0.000000000000009
    -0.000000000000007    -0.000000000000021    -0.451202222642917
3 9
     1.775611169033284    -1.526413502658321     0.000000000000030
    -1.526413502657859     0.013060675722333    -0.000000000000035
    -0.000000000000018     0.000000000000022     0.129690314169285
3 10
    -1.722142252051511     0.000000000002086    -0.000000000000000
     0.000000000001347    -0.030677956707835     0.000000000000065
     0.000000000000030    -0.000000000000021     0.031502257877359
3 11
     1.775611169033785     1.526413502655554     0.000000000000027
     1.526413502656300     0.013060675724663    -0.000000000000020
    -0.000000000000003    -0.000000000000016     0.129690314168571
3 12
    -1.722142252053609    -0.000000000001968    -0.000000000000003
    -0.000000000000106    -0.030677956709738     0.000000000000055
    -0.000000000000014     0.000000000000008     0.031502257877455
3 13
    -0.453544030546816     0.732425524680837    -0.000000000000037
     0.732425524683120    -1.299276178213668    -0.000000000000026
     0.000000000000001    -0.000000000000007     0.031502257877096
3 14
    -0.327320145635680    -0.116446700412679    -0.000000000000003
    -0.037543918200832    -0.416226670748716    -0.000000000000005
     0.000000000000008     0.000000000000016    -0.451202222642878
3 15
    -0.327320145640143     0.116446700413248    -0.000000000000029
     0.037543918200904    -0.416226670751425    -0.000000000000026
    -0.000000000000034     0.000000000000006    -0.451202222642002
3 16
    -0.453544030544959    -0.732425524677262    -0.000000000000004
    -0.732425524682040    -1.299276178213415    -0.000000000000019
     0.000000000000017    -0.000000000000020     0.031502257877265
3 17
     0.190418152625465     0.447995403102646     0.180104750266692
    -0.255285296228589    -0.036528054682989     0.335066834585468
    -0.093748975556831     0.024193820644851     0.044660350771702
3 18
    -4.786404567450557    -1.847825486001656    -4.211650129624270
    -1.847825486000799    -2.652719483929615    -2.431597336069094
    -3.282937171122238    -1.895404659479188    -5.918863219548540
3 19
    -4.786404567452150     1.847825486003388     4.211650129625172
     1.847825486002794    -2.652719483930570    -2.431597336070277
     3.282937171122727    -1.895404659479920    -5.918863219548662
3 20
     0.190418152626126    -0.447995403102081    -0.180104750267249
     0.255285296228453    -0.036528054683198     0.335066834585355
     0.093748975556890     0.024193820644888     0.044660350771684
3 21
    -0.382087623916940    -0.000000000000228     0.000000000000188
    -0.000000000000379     0.266156640405161    -0.613514362000655
    -0.000000000000031     0.013447525389581    -0.023472455157757
3 22
     0.082162506933798    -0.019472428713132     0.008327051861335
    -0.019472428714494     0.059677683013245    -0.004807625633602
    -0.079280911755847     0.045772855743964     0.021354355212463
3 23
    -1.585876942172579     0.000000000001042    -0.000000000000590
     0.000000000001330    -5.853247109205645     4.863194672140744
    -0.000000000000473     3.790809318959096    -5.918863219548355
3 24
     0.082162506933401     0.019472428713112    -0.008327051861331
     0.019472428714315     0.059677683013392    -0.004807625633839
     0.079280911755766     0.045772855743944     0.021354355212521
3 25
     0.104095574324408    -0.280698000379511    -0.531319023080303
    -0.280698000379796    -0.220026557835095     0.306757181000948
     0.011645898605239    -0.006723762694678    -0.023472455158097
3 26
     0.104095574324483     0.280698000380373     0.531319023080506
     0.280698000380876    -0.220026557835343     0.306757181000183
    -0.011645898605304    -0.006723762694622    -0.023472455158051
3 27
    -0.063237426916232    -0.401733413358130    -0.200124015584641
     0.301547285973228     0.217127524856860    -0.323508706366283
    -0.067826951071388     0.069092084088332     0.044660350771541
3 28
    -0.063237426915930     0.401733413357771     0.200124015583609
    -0.301547285973733     0.217127524856694    -0.323508706367078
     0.067826951071430     0.069092084088269     0.044660350771528
3 29
     0.103654421202486    -0.205192232536910     0.380228765851572
     0.498088466794375     0.050235676736368    -0.011558128219255
    -0.025922024485118    -0.093285904733464     0.044660350771606
3 30
     0.048435271056150    -0.000000000000039    -0.000000000000551
    -0.000000000000579     0.093404918892820     0.009615251266486
    -0.000000000000048    -0.091545711487492     0.021354355212719
3 31
     0.103654421202926     0.205192232536235    -0.380228765850297
    -0.498088466794999     0.050235676737298    -0.011558128219620
     0.025922024485204    -0.093285904733595     0.044660350771632
3 32
    -0.175292803207799    -0.000000000000248     0.000000000000156
    -0.000000000000337    -0.175292803206259     0.000000000000767
    -0.000000000000005     0.000000000000025    -0.001092738819158
3 33
     0.190418152625467     0.447995403102632    -0.180104750266689
    -0.255285296228597    -0.036528054682998    -0.335066834585466
     0.093748975556830    -0.024193820644853     0.044660350771699
3 34
    -4.786404567450549    -1.847825486001657     4.211650129624285
    -1.847825486000774    -2.652719483929612     2.431597336069111
     3.282937171122247     1.895404659479189    -5.918863219548537
3 35
    -4.786404567452156     1.847825486003376    -4.211650129625177
     1.847825486002772    -2.652719483930580     2.431597336070276
    -3.282937171122718     1.895404659479906    -5.918863219548660
3 36
     0.190418152626116    -0.447995403102085     0.180104750267269
     0.255285296228472    -0.036528054683206    -0.335066834585346
    -0.093748975556892    -0.024193820644878     0.044660350771676
3 37
    -0.382087623916950    -0.000000000000226    -0.000000000000189
    -0.000000000000388     0.266156640405155     0.613514362000634
     0.000000000000025    -0.013447525389578    -0.023472455157743
3 38
     0.082162506933799    -0.019472428713120    -0.008327051861344
    -0.019472428714489     0.059677683013260     0.004807625633610
     0.079280911755843    -0.045772855743963     0.021354355212449
3 39
    -1.585876942172584     0.000000000001050     0.000000000000588
     0.000000000001339    -5.853247109205651    -4.863194672140765
     0.000000000000469    -3.790809318959104    -5.918863219548365
3 40
     0.082162506933407     0.019472428713109     0.008327051861322
     0.019472428714311     0.059677683013404     0.004807625633843
    -0.079280911755767    -0.045772855743946     0.021354355212523
3 41
     0.104095574324411    -0.280698000379526     0.531319023080306
    -0.280698000379820    -0.220026557835105    -0.306757181000934
    -0.011645898605237     0.006723762694678    -0.023472455158115
3 42
     0.104095574324478     0.280698000380364    -0.531319023080497
     0.280698000380888    -0.220026557835341    -0.306757181000172
     0.011645898605314     0.006723762694618    -0.023472455158032
3 43
    -0.063237426916227    -0.401733413358139     0.200124015584637
     0.301547285973214     0.217127524856853     0.323508706366284
     0.067826951071395    -0.069092084088317     0.044660350771535
3 44
    -0.063237426915930     0.401733413357762    -0.200124015583599
    -0.301547285973720     0.217127524856690     0.323508706367085
    -0.067826951071446    -0.069092084088285     0.044660350771532
3 45
     0.103654421202480    -0.205192232536895    -0.380228765851572
     0.498088466794369     0.050235676736381     0.011558128219243
     0.025922024485114     0.093285904733481     0.044660350771614
3 46
     0.048435271056152    -0.000000000000034     0.000000000000542
    -0.000000000000582     0.093404918892834    -0.009615251266484
     0.000000000000043     0.091545711487483     0.021354355212724
3 47
     0.103654421202922     0.205192232536245     0.380228765850299
    -0.498088466795008     0.050235676737308     0.011558128219599
    -0.025922024485216     0.093285904733599     0.044660350771620
3 48
    -0.175292803207786    -0.000000000000239    -0.000000000000167
    -0.000000000000340    -0.175292803206237    -0.000000000000756
     0.000000000000028    -0.000000000000034    -0.001092738819143
4 1
    -0.460679933312135    -0.039451391107823    -0.000000000000018
     0.039451391106061    -0.282866883079094     0.000000000000047
     0.000000000000003    -0.000000000000050    -0.451202222641100
4 2
    -0.868214570925198    -0.000000000000324    -0.000000000000029
     0.000000000000430     2.656886415685196    -0.000000000000012